<?xml version="1.0" encoding="UTF-8"?>

<!-- generated on 2026-03-06T02:52:18.503872+08:00 by Eclipse SUMO sumo 1.25.0
<sumoConfiguration xmlns:xsi="http://www.w3.org/2001/XMLSchema-instance" xsi:noNamespaceSchemaLocation="http://sumo.dlr.de/xsd/sumoConfiguration.xsd">

    <input>
        <net-file value="data/raw_data/one-hour/network/sim.net.xml"/>
        <route-files value="data/raw_data/one-hour/routes/ambulance.rou.xml,data/raw_data/one-hour/                             routes/sedan.rou.xml,data/raw_data/one-hour/                             routes/suv.rou.xml,data/raw_data/one-hour/                             routes/truck.rou.xml"/>
        <additional-files value="data/raw_data/one-hour/topology/detectors.add.xml"/>
    </input>

    <output>
        <summary-output value="data/raw_data/one-hour/outputs/summary.xml"/>
        <tripinfo-output value="data/raw_data/one-hour/outputs/tripinfo.xml"/>
        <collision-output value="data/raw_data/one-hour/outputs/collisions.xml"/>
        <statistic-output value="data/raw_data/one-hour/outputs/statistics.xml"/>
        <deadlock-output value="data/raw_data/one-hour/outputs/deadlocks.xml"/>
    </output>

    <time>
        <begin value="600"/>
        <end value="4200"/>
        <step-length value="1"/>
    </time>

    <processing>
        <time-to-teleport value="300"/>
        <waiting-time-memory value="300"/>
    </processing>

    <routing>
        <routing-algorithm value="astar"/>
        <weights.random-factor value="1.0"/>
        <device.rerouting.probability value="1.0"/>
        <device.rerouting.period value="100"/>
    </routing>

    <report>
        <no-warnings value="True"/>
        <no-step-log value="true"/>
    </report>

    <traci_server>
        <remote-port value="58190"/>
    </traci_server>

    <gui_only>
        <gui-settings-file value="data/raw_data/one-hour/gui.settings.xml"/>
    </gui_only>

</sumoConfiguration>
-->

<tripinfos xmlns:xsi="http://www.w3.org/2001/XMLSchema-instance" xsi:noNamespaceSchemaLocation="http://sumo.dlr.de/xsd/tripinfo_file.xsd">
    <tripinfo id="sedan_right2C3.35" depart="611.00" departLane="right2C3_1" departPos="4.60" departSpeed="0.00" departDelay="2.00" arrival="714.00" arrivalLane="C2top2_1" arrivalPos="443.17" arrivalSpeed="16.85" duration="103.00" routeLength="1410.86" waitingTime="0.00" waitingCount="0" stopTime="0.00" timeLoss="20.65" rerouteNo="0" devices="tripinfo_sedan_right2C3.35 routing_sedan_right2C3.35" vType="sedan" speedFactor="1.05" vaporized=""/>
    <tripinfo id="suv_bottom2A2.33" depart="607.00" departLane="bottom2A2_1" departPos="5.10" departSpeed="0.00" departDelay="0.00" arrival="715.00" arrivalLane="A3right0_1" arrivalPos="495.16" arrivalSpeed="14.35" duration="108.00" routeLength="1435.38" waitingTime="0.00" waitingCount="0" stopTime="0.00" timeLoss="11.10" rerouteNo="0" devices="tripinfo_suv_bottom2A2.33 routing_suv_bottom2A2.33" vType="suv" speedFactor="0.90" vaporized=""/>
    <tripinfo id="sedan_bottom2A2.42" depart="624.00" departLane="bottom2A2_1" departPos="4.60" departSpeed="0.00" departDelay="0.00" arrival="721.00" arrivalLane="A3bottom3_1" arrivalPos="451.32" arrivalSpeed="16.68" duration="97.00" routeLength="1357.14" waitingTime="0.00" waitingCount="0" stopTime="0.00" timeLoss="13.94" rerouteNo="1" devices="tripinfo_sedan_bottom2A2.42 routing_sedan_bottom2A2.42" vType="sedan" speedFactor="1.01" vaporized=""/>
    <tripinfo id="sedan_left1B0.43" depart="637.00" departLane="left1B0_1" departPos="4.60" departSpeed="0.00" departDelay="0.00" arrival="727.00" arrivalLane="A0bottom0_2" arrivalPos="433.13" arrivalSpeed="18.87" duration="90.00" routeLength="1508.31" waitingTime="0.00" waitingCount="0" stopTime="0.00" timeLoss="11.97" rerouteNo="1" devices="tripinfo_sedan_left1B0.43 routing_sedan_left1B0.43" vType="sedan" speedFactor="1.18" vaporized=""/>
    <tripinfo id="suv_left2C0.27" depart="621.00" departLane="left2C0_1" departPos="5.10" departSpeed="0.00" departDelay="2.00" arrival="728.00" arrivalLane="B0left1_1" arrivalPos="485.98" arrivalSpeed="14.98" duration="107.00" routeLength="1388.79" waitingTime="0.00" waitingCount="0" stopTime="0.00" timeLoss="13.78" rerouteNo="1" devices="tripinfo_suv_left2C0.27 routing_suv_left2C0.27" vType="suv" speedFactor="0.91" vaporized=""/>
    <tripinfo id="sedan_top2C2.27" depart="610.00" departLane="top2C2_1" departPos="4.60" departSpeed="0.00" departDelay="0.00" arrival="733.00" arrivalLane="C3right2_2" arrivalPos="468.04" arrivalSpeed="18.21" duration="123.00" routeLength="1435.62" waitingTime="24.00" waitingCount="2" stopTime="0.00" timeLoss="45.24" rerouteNo="0" devices="tripinfo_sedan_top2C2.27 routing_sedan_top2C2.27" vType="sedan" speedFactor="1.12" vaporized=""/>
    <tripinfo id="sedan_bottom2A2.41" depart="610.00" departLane="bottom2A2_1" departPos="4.60" departSpeed="0.00" departDelay="1.00" arrival="746.00" arrivalLane="A1bottom1_2" arrivalPos="479.11" arrivalSpeed="16.74" duration="136.00" routeLength="1464.84" waitingTime="27.00" waitingCount="2" stopTime="0.00" timeLoss="48.64" rerouteNo="0" devices="tripinfo_sedan_bottom2A2.41 routing_sedan_bottom2A2.41" vType="sedan" speedFactor="1.03" vaporized=""/>
    <tripinfo id="sedan_right2C3.36" depart="636.00" departLane="right2C3_1" departPos="4.60" departSpeed="0.00" departDelay="1.00" arrival="747.00" arrivalLane="C3right2_2" arrivalPos="468.04" arrivalSpeed="15.46" duration="111.00" routeLength="951.93" waitingTime="34.00" waitingCount="1" stopTime="0.00" timeLoss="48.31" rerouteNo="1" devices="tripinfo_sedan_right2C3.36 routing_sedan_right2C3.36" vType="sedan" speedFactor="0.95" vaporized=""/>
    <tripinfo id="sedan_bottom0A0.48" depart="643.00" departLane="bottom0A0_1" departPos="4.60" departSpeed="0.00" departDelay="3.00" arrival="747.00" arrivalLane="A1bottom1_1" arrivalPos="479.11" arrivalSpeed="15.66" duration="104.00" routeLength="1437.28" waitingTime="0.00" waitingCount="0" stopTime="0.00" timeLoss="14.99" rerouteNo="1" devices="tripinfo_sedan_bottom0A0.48 routing_sedan_bottom0A0.48" vType="sedan" speedFactor="1.01" vaporized=""/>
    <tripinfo id="suv_top3C3.27" depart="631.00" departLane="top3C3_1" departPos="5.10" departSpeed="0.00" departDelay="1.00" arrival="747.00" arrivalLane="B3right1_2" arrivalPos="504.51" arrivalSpeed="17.49" duration="116.00" routeLength="1532.27" waitingTime="5.00" waitingCount="2" stopTime="0.00" timeLoss="27.09" rerouteNo="0" devices="tripinfo_suv_top3C3.27 routing_suv_top3C3.27" vType="suv" speedFactor="1.05" vaporized=""/>
    <tripinfo id="sedan_bottom2A2.40" depart="602.00" departLane="bottom2A2_1" departPos="4.60" departSpeed="0.00" departDelay="0.00" arrival="749.00" arrivalLane="A1bottom1_2" arrivalPos="479.11" arrivalSpeed="14.74" duration="147.00" routeLength="1473.94" waitingTime="33.00" waitingCount="2" stopTime="0.00" timeLoss="51.15" rerouteNo="0" devices="tripinfo_sedan_bottom2A2.40 routing_sedan_bottom2A2.40" vType="sedan" speedFactor="0.94" vaporized=""/>
    <tripinfo id="sedan_bottom0A0.52" depart="686.00" departLane="bottom0A0_1" departPos="4.60" departSpeed="0.00" departDelay="0.00" arrival="751.00" arrivalLane="A0bottom0_2" arrivalPos="433.13" arrivalSpeed="15.49" duration="65.00" routeLength="871.88" waitingTime="0.00" waitingCount="0" stopTime="0.00" timeLoss="10.23" rerouteNo="1" devices="tripinfo_sedan_bottom0A0.52 routing_sedan_bottom0A0.52" vType="sedan" speedFactor="0.98" vaporized=""/>
    <tripinfo id="suv_top2C2.27" depart="632.00" departLane="top2C2_1" departPos="5.10" departSpeed="0.00" departDelay="1.00" arrival="751.00" arrivalLane="C2top2_1" arrivalPos="443.17" arrivalSpeed="13.01" duration="119.00" routeLength="891.46" waitingTime="34.00" waitingCount="1" stopTime="0.00" timeLoss="48.50" rerouteNo="1" devices="tripinfo_suv_top2C2.27 routing_suv_top2C2.27" vType="suv" speedFactor="0.78" vaporized=""/>
    <tripinfo id="suv_top3C3.26" depart="628.00" departLane="top3C3_1" departPos="5.10" departSpeed="0.00" departDelay="0.00" arrival="752.00" arrivalLane="B3right1_2" arrivalPos="504.51" arrivalSpeed="14.83" duration="124.00" routeLength="1532.27" waitingTime="7.00" waitingCount="1" stopTime="0.00" timeLoss="26.19" rerouteNo="0" devices="tripinfo_suv_top3C3.26 routing_suv_top3C3.26" vType="suv" speedFactor="0.95" vaporized=""/>
    <tripinfo id="sedan_top1C1.38" depart="654.00" departLane="top1C1_1" departPos="4.60" departSpeed="0.00" departDelay="1.00" arrival="753.00" arrivalLane="C0top0_1" arrivalPos="491.74" arrivalSpeed="17.34" duration="99.00" routeLength="1478.42" waitingTime="0.00" waitingCount="0" stopTime="0.00" timeLoss="12.13" rerouteNo="0" devices="tripinfo_sedan_top1C1.38 routing_sedan_top1C1.38" vType="sedan" speedFactor="1.04" vaporized=""/>
    <tripinfo id="sedan_bottom0A0.51" depart="662.00" departLane="bottom0A0_1" departPos="4.60" departSpeed="0.00" departDelay="3.00" arrival="759.00" arrivalLane="A1bottom1_1" arrivalPos="479.11" arrivalSpeed="18.48" duration="97.00" routeLength="1437.28" waitingTime="0.00" waitingCount="0" stopTime="0.00" timeLoss="21.18" rerouteNo="0" devices="tripinfo_sedan_bottom0A0.51 routing_sedan_bottom0A0.51" vType="sedan" speedFactor="1.17" vaporized=""/>
    <tripinfo id="sedan_top3C3.42" depart="664.00" departLane="top3C3_1" departPos="4.60" departSpeed="0.00" departDelay="1.00" arrival="761.00" arrivalLane="C2top2_1" arrivalPos="443.17" arrivalSpeed="15.92" duration="97.00" routeLength="1356.98" waitingTime="0.00" waitingCount="0" stopTime="0.00" timeLoss="13.67" rerouteNo="0" devices="tripinfo_sedan_top3C3.42 routing_sedan_top3C3.42" vType="sedan" speedFactor="1.00" vaporized=""/>
    <tripinfo id="sedan_top2C2.30" depart="638.00" departLane="top2C2_1" departPos="4.60" departSpeed="0.00" departDelay="0.00" arrival="763.00" arrivalLane="C0top0_1" arrivalPos="491.74" arrivalSpeed="18.92" duration="125.00" routeLength="1960.51" waitingTime="0.00" waitingCount="0" stopTime="0.00" timeLoss="20.93" rerouteNo="1" devices="tripinfo_sedan_top2C2.30 routing_sedan_top2C2.30" vType="sedan" speedFactor="1.15" vaporized=""/>
    <tripinfo id="suv_bottom1A1.27" depart="647.00" departLane="bottom1A1_1" departPos="5.10" departSpeed="0.00" departDelay="0.00" arrival="763.00" arrivalLane="A0left0_1" arrivalPos="457.42" arrivalSpeed="15.27" duration="116.00" routeLength="1521.93" waitingTime="5.00" waitingCount="1" stopTime="0.00" timeLoss="18.55" rerouteNo="0" devices="tripinfo_suv_bottom1A1.27 routing_suv_bottom1A1.27" vType="suv" speedFactor="0.95" vaporized=""/>
    <tripinfo id="truck_bottom2A2.11" depart="628.00" departLane="bottom2A2_1" departPos="8.10" departSpeed="0.00" departDelay="3.00" arrival="769.00" arrivalLane="A3right0_1" arrivalPos="495.16" arrivalSpeed="12.17" duration="141.00" routeLength="1432.38" waitingTime="8.00" waitingCount="1" stopTime="0.00" timeLoss="24.31" rerouteNo="0" devices="tripinfo_truck_bottom2A2.11 routing_truck_bottom2A2.11" vType="truck" speedFactor="0.74" vaporized=""/>
    <tripinfo id="sedan_left2C0.53" depart="636.00" departLane="left2C0_1" departPos="4.60" departSpeed="0.00" departDelay="0.00" arrival="771.00" arrivalLane="C2top2_1" arrivalPos="443.17" arrivalSpeed="18.71" duration="135.00" routeLength="2003.51" waitingTime="6.00" waitingCount="2" stopTime="0.00" timeLoss="28.24" rerouteNo="0" devices="tripinfo_sedan_left2C0.53 routing_sedan_left2C0.53" vType="sedan" speedFactor="1.13" vaporized=""/>
    <tripinfo id="sedan_right0A3.32" depart="644.00" departLane="right0A3_1" departPos="4.60" departSpeed="0.00" departDelay="0.00" arrival="771.00" arrivalLane="A2bottom2_2" arrivalPos="451.66" arrivalSpeed="18.78" duration="127.00" routeLength="1470.29" waitingTime="40.00" waitingCount="1" stopTime="0.00" timeLoss="51.23" rerouteNo="0" devices="tripinfo_sedan_right0A3.32 routing_sedan_right0A3.32" vType="sedan" speedFactor="1.18" vaporized=""/>
    <tripinfo id="sedan_left0A0.49" depart="645.00" departLane="left0A0_1" departPos="4.60" departSpeed="0.00" departDelay="0.00" arrival="774.00" arrivalLane="B0left1_3" arrivalPos="485.98" arrivalSpeed="18.08" duration="129.00" routeLength="1555.96" waitingTime="22.00" waitingCount="2" stopTime="0.00" timeLoss="42.86" rerouteNo="0" devices="tripinfo_sedan_left0A0.49 routing_sedan_left0A0.49" vType="sedan" speedFactor="1.10" vaporized=""/>
    <tripinfo id="suv_right0A3.33" depart="616.00" departLane="right0A3_1" departPos="5.10" departSpeed="0.00" departDelay="0.00" arrival="774.00" arrivalLane="C3right2_1" arrivalPos="468.04" arrivalSpeed="15.12" duration="158.00" routeLength="1985.56" waitingTime="9.00" waitingCount="1" stopTime="0.00" timeLoss="29.88" rerouteNo="1" devices="tripinfo_suv_right0A3.33 routing_suv_right0A3.33" vType="suv" speedFactor="0.95" vaporized=""/>
    <tripinfo id="suv_right2C3.29" depart="662.00" departLane="right2C3_1" departPos="5.10" departSpeed="0.00" departDelay="1.00" arrival="774.00" arrivalLane="C2top2_1" arrivalPos="443.17" arrivalSpeed="15.94" duration="112.00" routeLength="1410.36" waitingTime="3.00" waitingCount="1" stopTime="0.00" timeLoss="25.38" rerouteNo="0" devices="tripinfo_suv_right2C3.29 routing_suv_right2C3.29" vType="suv" speedFactor="0.99" vaporized=""/>
    <tripinfo id="sedan_right1B3.46" depart="666.00" departLane="right1B3_1" departPos="4.60" departSpeed="0.00" departDelay="1.00" arrival="776.00" arrivalLane="C3right2_1" arrivalPos="468.04" arrivalSpeed="15.65" duration="110.00" routeLength="1486.97" waitingTime="0.00" waitingCount="0" stopTime="0.00" timeLoss="17.43" rerouteNo="1" devices="tripinfo_sedan_right1B3.46 routing_sedan_right1B3.46" vType="sedan" speedFactor="1.00" vaporized=""/>
    <tripinfo id="sedan_top3C3.45" depart="696.00" departLane="top3C3_1" departPos="4.60" departSpeed="0.00" departDelay="0.00" arrival="776.00" arrivalLane="C3right2_2" arrivalPos="468.04" arrivalSpeed="16.03" duration="80.00" routeLength="971.02" waitingTime="8.00" waitingCount="1" stopTime="0.00" timeLoss="21.15" rerouteNo="0" devices="tripinfo_sedan_top3C3.45 routing_sedan_top3C3.45" vType="sedan" speedFactor="1.00" vaporized=""/>
    <tripinfo id="suv_left0A0.35" depart="683.00" departLane="left0A0_1" departPos="5.10" departSpeed="0.00" departDelay="0.00" arrival="777.00" arrivalLane="A0left0_2" arrivalPos="457.42" arrivalSpeed="15.47" duration="94.00" routeLength="930.19" waitingTime="19.00" waitingCount="1" stopTime="0.00" timeLoss="31.91" rerouteNo="1" devices="tripinfo_suv_left0A0.35 routing_suv_left0A0.35" vType="suv" speedFactor="0.94" vaporized=""/>
    <tripinfo id="sedan_top1C1.39" depart="666.00" departLane="top1C1_1" departPos="4.60" departSpeed="0.00" departDelay="0.00" arrival="780.00" arrivalLane="C3right2_2" arrivalPos="468.04" arrivalSpeed="17.86" duration="114.00" routeLength="2021.66" waitingTime="0.00" waitingCount="0" stopTime="0.00" timeLoss="7.59" rerouteNo="1" devices="tripinfo_sedan_top1C1.39 routing_sedan_top1C1.39" vType="sedan" speedFactor="1.14" vaporized=""/>
    <tripinfo id="sedan_bottom2A2.45" depart="681.00" departLane="bottom2A2_1" departPos="4.60" departSpeed="0.00" departDelay="0.00" arrival="783.00" arrivalLane="A3bottom3_1" arrivalPos="451.32" arrivalSpeed="14.74" duration="102.00" routeLength="1357.14" waitingTime="0.00" waitingCount="0" stopTime="0.00" timeLoss="12.71" rerouteNo="0" devices="tripinfo_sedan_bottom2A2.45 routing_sedan_bottom2A2.45" vType="sedan" speedFactor="0.94" vaporized=""/>
    <tripinfo id="suv_right1B3.27" depart="676.00" departLane="right1B3_1" departPos="5.10" departSpeed="0.00" departDelay="3.00" arrival="785.00" arrivalLane="C3right2_1" arrivalPos="468.04" arrivalSpeed="15.15" duration="109.00" routeLength="1486.47" waitingTime="0.00" waitingCount="0" stopTime="0.00" timeLoss="15.59" rerouteNo="1" devices="tripinfo_suv_right1B3.27 routing_suv_right1B3.27" vType="suv" speedFactor="0.97" vaporized=""/>
    <tripinfo id="suv_top3C3.25" depart="600.00" departLane="top3C3_1" departPos="5.10" departSpeed="0.00" departDelay="0.00" arrival="787.00" arrivalLane="A3bottom3_1" arrivalPos="451.32" arrivalSpeed="15.94" duration="187.00" routeLength="1997.86" waitingTime="39.00" waitingCount="2" stopTime="0.00" timeLoss="61.78" rerouteNo="0" devices="tripinfo_suv_top3C3.25 routing_suv_top3C3.25" vType="suv" speedFactor="0.96" vaporized=""/>
    <tripinfo id="suv_left0A0.30" depart="648.00" departLane="left0A0_1" departPos="5.10" departSpeed="0.00" departDelay="1.00" arrival="787.00" arrivalLane="A1bottom1_1" arrivalPos="479.11" arrivalSpeed="17.64" duration="139.00" routeLength="1494.51" waitingTime="38.00" waitingCount="1" stopTime="0.00" timeLoss="55.94" rerouteNo="0" devices="tripinfo_suv_left0A0.30 routing_suv_left0A0.30" vType="suv" speedFactor="1.10" vaporized=""/>
    <tripinfo id="sedan_right1B3.44" depart="632.00" departLane="right1B3_1" departPos="4.60" departSpeed="0.00" departDelay="0.00" arrival="788.00" arrivalLane="A2bottom2_1" arrivalPos="451.66" arrivalSpeed="13.37" duration="156.00" routeLength="2001.66" waitingTime="0.00" waitingCount="0" stopTime="0.00" timeLoss="17.17" rerouteNo="0" devices="tripinfo_sedan_right1B3.44 routing_sedan_right1B3.44" vType="sedan" speedFactor="0.87" vaporized=""/>
    <tripinfo id="sedan_bottom1A1.41" depart="684.00" departLane="bottom1A1_1" departPos="4.60" departSpeed="0.00" departDelay="0.00" arrival="788.00" arrivalLane="A2bottom2_2" arrivalPos="451.66" arrivalSpeed="15.04" duration="104.00" routeLength="1404.56" waitingTime="0.00" waitingCount="0" stopTime="0.00" timeLoss="12.81" rerouteNo="0" devices="tripinfo_sedan_bottom1A1.41 routing_sedan_bottom1A1.41" vType="sedan" speedFactor="0.96" vaporized=""/>
    <tripinfo id="sedan_top1C1.37" depart="641.00" departLane="top1C1_1" departPos="4.60" departSpeed="0.00" departDelay="0.00" arrival="789.00" arrivalLane="B0left1_1" arrivalPos="485.98" arrivalSpeed="16.09" duration="148.00" routeLength="1939.91" waitingTime="8.00" waitingCount="1" stopTime="0.00" timeLoss="29.57" rerouteNo="1" devices="tripinfo_sedan_top1C1.37 routing_sedan_top1C1.37" vType="sedan" speedFactor="0.99" vaporized=""/>
    <tripinfo id="sedan_top1C1.36" depart="632.00" departLane="top1C1_1" departPos="4.60" departSpeed="0.00" departDelay="0.00" arrival="791.00" arrivalLane="B0left1_2" arrivalPos="485.98" arrivalSpeed="15.12" duration="159.00" routeLength="1939.91" waitingTime="5.00" waitingCount="2" stopTime="0.00" timeLoss="30.94" rerouteNo="1" devices="tripinfo_sedan_top1C1.36 routing_sedan_top1C1.36" vType="sedan" speedFactor="0.92" vaporized=""/>
    <tripinfo id="truck_left0A0.8" depart="710.00" departLane="left0A0_1" departPos="8.10" departSpeed="0.00" departDelay="0.00" arrival="792.00" arrivalLane="A0bottom0_1" arrivalPos="433.13" arrivalSpeed="12.65" duration="82.00" routeLength="908.65" waitingTime="0.00" waitingCount="0" stopTime="0.00" timeLoss="9.35" rerouteNo="0" devices="tripinfo_truck_left0A0.8 routing_truck_left0A0.8" vType="truck" speedFactor="0.76" vaporized=""/>
    <tripinfo id="suv_top3C3.28" depart="658.00" departLane="top3C3_1" departPos="5.10" departSpeed="0.00" departDelay="2.00" arrival="795.00" arrivalLane="B3right1_4" arrivalPos="504.51" arrivalSpeed="17.45" duration="137.00" routeLength="1532.27" waitingTime="29.00" waitingCount="1" stopTime="0.00" timeLoss="52.55" rerouteNo="0" devices="tripinfo_suv_top3C3.28 routing_suv_top3C3.28" vType="suv" speedFactor="1.10" vaporized=""/>
    <tripinfo id="sedan_top0C0.44" depart="613.00" departLane="top0C0_1" departPos="4.60" departSpeed="0.00" departDelay="0.00" arrival="797.00" arrivalLane="A0left0_1" arrivalPos="457.42" arrivalSpeed="14.96" duration="184.00" routeLength="1985.09" waitingTime="34.00" waitingCount="1" stopTime="0.00" timeLoss="53.85" rerouteNo="0" devices="tripinfo_sedan_top0C0.44 routing_sedan_top0C0.44" vType="sedan" speedFactor="0.93" vaporized=""/>
    <tripinfo id="suv_top2C2.29" depart="673.00" departLane="top2C2_1" departPos="5.10" departSpeed="0.00" departDelay="0.00" arrival="797.00" arrivalLane="C3top3_1" arrivalPos="449.93" arrivalSpeed="15.48" duration="124.00" routeLength="1433.47" waitingTime="11.00" waitingCount="2" stopTime="0.00" timeLoss="33.31" rerouteNo="1" devices="tripinfo_suv_top2C2.29 routing_suv_top2C2.29" vType="suv" speedFactor="0.96" vaporized=""/>
    <tripinfo id="sedan_top3C3.41" depart="661.00" departLane="top3C3_1" departPos="4.60" departSpeed="0.00" departDelay="2.00" arrival="799.00" arrivalLane="B3right1_3" arrivalPos="504.51" arrivalSpeed="16.55" duration="138.00" routeLength="1532.77" waitingTime="27.00" waitingCount="1" stopTime="0.00" timeLoss="46.69" rerouteNo="1" devices="tripinfo_sedan_top3C3.41 routing_sedan_top3C3.41" vType="sedan" speedFactor="1.02" vaporized=""/>
    <tripinfo id="sedan_right1B3.45" depart="640.00" departLane="right1B3_1" departPos="4.60" departSpeed="0.00" departDelay="0.00" arrival="800.00" arrivalLane="A1bottom1_2" arrivalPos="479.11" arrivalSpeed="18.52" duration="160.00" routeLength="2524.22" waitingTime="5.00" waitingCount="1" stopTime="0.00" timeLoss="29.61" rerouteNo="0" devices="tripinfo_sedan_right1B3.45 routing_sedan_right1B3.45" vType="sedan" speedFactor="1.17" vaporized=""/>
    <tripinfo id="sedan_top3C3.39" depart="648.00" departLane="top3C3_1" departPos="4.60" departSpeed="0.00" departDelay="2.00" arrival="800.00" arrivalLane="B3right1_1" arrivalPos="504.51" arrivalSpeed="13.77" duration="152.00" routeLength="1532.77" waitingTime="33.00" waitingCount="1" stopTime="0.00" timeLoss="48.39" rerouteNo="0" devices="tripinfo_sedan_top3C3.39 routing_sedan_top3C3.39" vType="sedan" speedFactor="0.90" vaporized=""/>
    <tripinfo id="suv_bottom0A0.27" depart="605.00" departLane="bottom0A0_1" departPos="5.10" departSpeed="0.00" departDelay="0.00" arrival="800.00" arrivalLane="C0top0_1" arrivalPos="491.74" arrivalSpeed="12.69" duration="195.00" routeLength="2000.16" waitingTime="26.00" waitingCount="2" stopTime="0.00" timeLoss="48.86" rerouteNo="1" devices="tripinfo_suv_bottom0A0.27 routing_suv_bottom0A0.27" vType="suv" speedFactor="0.82" vaporized=""/>
    <tripinfo id="suv_bottom2A2.34" depart="694.00" departLane="bottom2A2_1" departPos="5.10" departSpeed="0.00" departDelay="0.00" arrival="802.00" arrivalLane="A3right0_4" arrivalPos="495.16" arrivalSpeed="20.61" duration="108.00" routeLength="1435.38" waitingTime="12.00" waitingCount="1" stopTime="0.00" timeLoss="38.15" rerouteNo="0" devices="tripinfo_suv_bottom2A2.34 routing_suv_bottom2A2.34" vType="suv" speedFactor="1.25" vaporized=""/>
    <tripinfo id="sedan_bottom1A1.44" depart="703.00" departLane="bottom1A1_1" departPos="4.60" departSpeed="0.00" departDelay="0.00" arrival="803.00" arrivalLane="A2bottom2_1" arrivalPos="451.66" arrivalSpeed="16.26" duration="100.00" routeLength="1404.56" waitingTime="0.00" waitingCount="0" stopTime="0.00" timeLoss="13.93" rerouteNo="0" devices="tripinfo_sedan_bottom1A1.44 routing_sedan_bottom1A1.44" vType="sedan" speedFactor="1.01" vaporized=""/>
    <tripinfo id="sedan_top3C3.44" depart="673.00" departLane="top3C3_1" departPos="4.60" departSpeed="0.00" departDelay="0.00" arrival="806.00" arrivalLane="B3right1_3" arrivalPos="504.51" arrivalSpeed="15.24" duration="133.00" routeLength="1532.77" waitingTime="13.00" waitingCount="1" stopTime="0.00" timeLoss="34.02" rerouteNo="0" devices="tripinfo_sedan_top3C3.44 routing_sedan_top3C3.44" vType="sedan" speedFactor="0.94" vaporized=""/>
    <tripinfo id="sedan_bottom2A2.46" depart="687.00" departLane="bottom2A2_1" departPos="4.60" departSpeed="0.00" departDelay="0.00" arrival="806.00" arrivalLane="A3right0_1" arrivalPos="495.16" arrivalSpeed="16.40" duration="119.00" routeLength="1435.88" waitingTime="17.00" waitingCount="1" stopTime="0.00" timeLoss="34.10" rerouteNo="0" devices="tripinfo_sedan_bottom2A2.46 routing_sedan_bottom2A2.46" vType="sedan" speedFactor="1.03" vaporized=""/>
    <tripinfo id="suv_bottom1A1.28" depart="655.00" departLane="bottom1A1_1" departPos="5.10" departSpeed="0.00" departDelay="0.00" arrival="806.00" arrivalLane="A0left0_1" arrivalPos="457.42" arrivalSpeed="16.37" duration="151.00" routeLength="1521.93" waitingTime="40.00" waitingCount="1" stopTime="0.00" timeLoss="57.21" rerouteNo="0" devices="tripinfo_suv_bottom1A1.28 routing_suv_bottom1A1.28" vType="suv" speedFactor="0.99" vaporized=""/>
    <tripinfo id="truck_top3C3.14" depart="644.00" departLane="top3C3_1" departPos="8.10" departSpeed="0.00" departDelay="0.00" arrival="806.00" arrivalLane="B3right1_1" arrivalPos="504.51" arrivalSpeed="14.13" duration="162.00" routeLength="1529.27" waitingTime="35.00" waitingCount="1" stopTime="0.00" timeLoss="53.87" rerouteNo="0" devices="tripinfo_truck_top3C3.14 routing_truck_top3C3.14" vType="truck" speedFactor="0.86" vaporized=""/>
    <tripinfo id="suv_bottom1A1.26" depart="636.00" departLane="bottom1A1_1" departPos="5.10" departSpeed="0.00" departDelay="0.00" arrival="808.00" arrivalLane="A3right0_3" arrivalPos="495.16" arrivalSpeed="16.62" duration="172.00" routeLength="1950.39" waitingTime="30.00" waitingCount="2" stopTime="0.00" timeLoss="57.48" rerouteNo="0" devices="tripinfo_suv_bottom1A1.26 routing_suv_bottom1A1.26" vType="suv" speedFactor="1.04" vaporized=""/>
    <tripinfo id="sedan_bottom2A2.47" depart="690.00" departLane="bottom2A2_1" departPos="4.60" departSpeed="0.00" departDelay="1.00" arrival="809.00" arrivalLane="A3right0_1" arrivalPos="495.16" arrivalSpeed="16.79" duration="119.00" routeLength="1435.88" waitingTime="16.00" waitingCount="1" stopTime="0.00" timeLoss="31.74" rerouteNo="0" devices="tripinfo_sedan_bottom2A2.47 routing_sedan_bottom2A2.47" vType="sedan" speedFactor="1.01" vaporized=""/>
    <tripinfo id="suv_bottom1A1.24" depart="613.00" departLane="bottom1A1_1" departPos="5.10" departSpeed="0.00" departDelay="3.00" arrival="809.00" arrivalLane="A3right0_4" arrivalPos="495.16" arrivalSpeed="17.17" duration="196.00" routeLength="1950.39" waitingTime="43.00" waitingCount="2" stopTime="0.00" timeLoss="83.85" rerouteNo="0" devices="tripinfo_suv_bottom1A1.24 routing_suv_bottom1A1.24" vType="suv" speedFactor="1.06" vaporized=""/>
    <tripinfo id="sedan_bottom1A1.43" depart="695.00" departLane="bottom1A1_1" departPos="4.60" departSpeed="0.00" departDelay="0.00" arrival="811.00" arrivalLane="A0left0_1" arrivalPos="457.42" arrivalSpeed="15.16" duration="116.00" routeLength="1522.43" waitingTime="7.00" waitingCount="1" stopTime="0.00" timeLoss="20.37" rerouteNo="0" devices="tripinfo_sedan_bottom1A1.43 routing_sedan_bottom1A1.43" vType="sedan" speedFactor="0.97" vaporized=""/>
    <tripinfo id="suv_top1C1.26" depart="705.00" departLane="top1C1_1" departPos="5.10" departSpeed="0.00" departDelay="6.00" arrival="814.00" arrivalLane="C0left2_1" arrivalPos="460.30" arrivalSpeed="14.42" duration="109.00" routeLength="1481.60" waitingTime="0.00" waitingCount="0" stopTime="0.00" timeLoss="10.54" rerouteNo="0" devices="tripinfo_suv_top1C1.26 routing_suv_top1C1.26" vType="suv" speedFactor="0.91" vaporized=""/>
    <tripinfo id="suv_bottom0A0.28" depart="640.00" departLane="bottom0A0_1" departPos="5.10" departSpeed="0.00" departDelay="3.00" arrival="817.00" arrivalLane="A2bottom2_1" arrivalPos="451.66" arrivalSpeed="15.94" duration="177.00" routeLength="1898.56" waitingTime="40.00" waitingCount="1" stopTime="0.00" timeLoss="62.87" rerouteNo="0" devices="tripinfo_suv_bottom0A0.28 routing_suv_bottom0A0.28" vType="suv" speedFactor="1.02" vaporized=""/>
    <tripinfo id="suv_bottom1A1.23" depart="609.00" departLane="bottom1A1_1" departPos="5.10" departSpeed="0.00" departDelay="1.00" arrival="818.00" arrivalLane="A3right0_1" arrivalPos="495.16" arrivalSpeed="13.08" duration="209.00" routeLength="1950.39" waitingTime="39.00" waitingCount="2" stopTime="0.00" timeLoss="65.51" rerouteNo="0" devices="tripinfo_suv_bottom1A1.23 routing_suv_bottom1A1.23" vType="suv" speedFactor="0.82" vaporized=""/>
    <tripinfo id="suv_bottom1A1.22" depart="606.00" departLane="bottom1A1_1" departPos="5.10" departSpeed="0.00" departDelay="0.00" arrival="819.00" arrivalLane="A3right0_2" arrivalPos="495.16" arrivalSpeed="12.75" duration="213.00" routeLength="1950.39" waitingTime="35.00" waitingCount="2" stopTime="0.00" timeLoss="60.54" rerouteNo="0" devices="tripinfo_suv_bottom1A1.22 routing_suv_bottom1A1.22" vType="suv" speedFactor="0.78" vaporized=""/>
    <tripinfo id="suv_top2C2.28" depart="663.00" departLane="top2C2_1" departPos="5.10" departSpeed="0.00" departDelay="0.00" arrival="819.00" arrivalLane="C0top0_1" arrivalPos="491.74" arrivalSpeed="16.33" duration="156.00" routeLength="1960.01" waitingTime="18.00" waitingCount="1" stopTime="0.00" timeLoss="41.24" rerouteNo="1" devices="tripinfo_suv_top2C2.28 routing_suv_top2C2.28" vType="suv" speedFactor="1.05" vaporized=""/>
    <tripinfo id="sedan_right2C3.38" depart="676.00" departLane="right2C3_1" departPos="4.60" departSpeed="0.00" departDelay="0.00" arrival="821.00" arrivalLane="C2top2_1" arrivalPos="443.17" arrivalSpeed="14.89" duration="145.00" routeLength="1410.86" waitingTime="35.00" waitingCount="1" stopTime="0.00" timeLoss="51.25" rerouteNo="0" devices="tripinfo_sedan_right2C3.38 routing_sedan_right2C3.38" vType="sedan" speedFactor="0.91" vaporized=""/>
    <tripinfo id="sedan_bottom3A3.37" depart="667.00" departLane="bottom3A3_1" departPos="4.60" departSpeed="0.00" departDelay="0.00" arrival="823.00" arrivalLane="C3right2_1" arrivalPos="468.04" arrivalSpeed="15.72" duration="156.00" routeLength="1978.48" waitingTime="12.00" waitingCount="1" stopTime="0.00" timeLoss="32.58" rerouteNo="0" devices="tripinfo_sedan_bottom3A3.37 routing_sedan_bottom3A3.37" vType="sedan" speedFactor="0.97" vaporized=""/>